LAMMPS data file. CGCMM style. atom_style charge generated by VMD/TopoTools v1.7 on Fri Mar 15 15:33:51 +0800 2019
 1530 atoms
 3 atom types

 -1.957999 45.016999  xlo xhi
 0.564003 47.435999  ylo yhi
 -0.771952 46.272953  zlo zhi					
					
 Masses
 
 1 12.010700 
 2 1.007940 					
 3 15.999400 
 
 Atoms
 					
1	1	0	15.867	35.373	25.503
2	1	0	15.265	34.1	25.583
3	1	0	14.108	33.85	26.346
4	1	0	13.497	34.919	27.072
5	1	0	14.084	36.254	27.004
6	1	0	15.285	36.471	26.204
7	1	0	13.481	37.323	27.715
8	1	0	12.297	37.098	28.515
9	1	0	11.738	35.769	28.566
10	1	0	12.306	34.714	27.876
11	1	0	15.877	37.799	26.127
12	1	0	15.299	38.853	26.798
13	1	0	14.097	38.653	27.596
14	1	0	11.726	38.219	29.23
15	1	0	12.377	39.531	29.069
16	1	0	13.51	39.749	28.263
17	1	0	11.861	40.709	29.757
18	1	0	10.691	40.339	30.544
19	1	0	9.976	39.043	30.747
20	1	0	10.577	37.998	30.031
21	2	0	16.782	35.522	24.893
22	2	0	15.727	33.254	25.022
23	2	0	13.677	32.828	26.391
24	2	0	10.827	35.569	29.169
25	2	0	11.849	33.704	27.94
26	2	0	16.8	37.965	25.53
27	2	0	15.758	39.864	26.738
28	2	0	13.938	40.799	28.136
29	2	0	12.295	41.732	29.69
30	2	0	9.072	38.922	31.387
31	2	0	10.131	36.984	30.101
32	1	0	21.207	42.81	26.279
33	1	0	21.89	42.772	27.513
34	1	0	21.959	43.883	28.376
35	1	0	21.313	45.103	28.008
36	1	0	20.591	45.178	26.74
37	1	0	20.548	44.008	25.87
38	1	0	19.929	46.377	26.375
39	1	0	19.965	47.526	27.255
40	1	0	20.692	47.43	28.498
41	1	0	21.346	46.27	28.87
42	1	0	19.827	44.069	24.606
43	1	0	19.182	45.227	24.232
44	1	0	19.208	46.402	25.094
45	1	0	19.263	48.724	26.849
46	1	0	18.563	48.701	25.553
47	1	0	18.532	47.578	24.702
48	1	0	17.85	49.882	25.079
49	1	0	17.968	50.95	26.064
50	1	0	18.646	51.039	27.392
51	1	0	19.294	49.841	27.723
52	2	0	21.174	41.906	25.635
53	2	0	22.388	41.822	27.825
54	2	0	22.502	43.807	29.342
55	2	0	20.737	48.298	29.19
56	2	0	21.893	46.232	29.838
57	2	0	19.789	43.178	23.941
58	2	0	18.632	45.26	23.266
59	2	0	17.985	47.616	23.737
60	2	0	17.31	49.962	24.109
61	2	0	18.641	51.949	28.036
62	2	0	19.838	49.782	28.69
63	1	0	10.932	39.322	39.848
64	1	0	9.922	38.476	39.344
65	1	0	10.1	37.086	39.198
66	1	0	11.345	36.491	39.568
67	1	0	12.415	37.338	40.088
68	1	0	12.192	38.773	40.23
69	1	0	13.656	36.759	40.455
70	1	0	13.861	35.332	40.323
71	1	0	12.787	34.517	39.809
72	1	0	11.571	35.062	39.443
73	1	0	13.246	39.627	40.76
74	1	0	14.46	39.083	41.121
75	1	0	14.701	37.653	40.976
76	1	0	15.139	34.784	40.723
77	1	0	16.16	35.724	41.218
78	1	0	15.951	37.111	41.345
79	1	0	17.472	35.239	41.629
80	1	0	17.525	33.789	41.479
81	1	0	16.531	32.78	41.007
82	1	0	15.322	33.381	40.627
83	2	0	10.745	40.413	39.947
84	2	0	8.943	38.925	39.05
85	2	0	9.276	36.457	38.798
86	2	0	12.916	33.418	39.701
87	2	0	10.764	34.401	39.058
88	2	0	13.077	40.721	40.871
89	2	0	15.259	39.744	41.523
90	2	0	16.755	37.77	41.734
91	2	0	18.301	35.874	42.016
92	2	0	16.724	31.683	40.972
93	2	0	14.5	32.731	40.258
94	1	0	8.843	-2.946	35.277
95	1	0	7.687	-2.768	34.489
96	1	0	7.049	-1.519	34.345
97	1	0	7.574	-0.373	35.015
98	1	0	8.772	-0.522	35.84
99	1	0	9.406	-1.83	35.965
100	1	0	9.281	0.588	36.561
101	1	0	8.632	1.879	36.46
102	1	0	7.458	2	35.631
103	1	0	6.936	0.928	34.934
104	1	0	10.583	-1.997	36.807
105	1	0	11.091	-0.923	37.505
106	1	0	10.461	0.387	37.413
107	1	0	9.176	3.002	37.193
108	1	0	10.353	2.739	38.037
109	1	0	10.976	1.479	38.146
110	1	0	10.942	3.821	38.817
111	1	0	10.205	5.056	38.576
112	1	0	9.024	5.394	37.726
113	1	0	8.548	4.265	37.044
114	2	0	9.312	-3.949	35.363
115	2	0	7.259	-3.654	33.961
116	2	0	6.136	-1.428	33.72
117	2	0	6.934	2.976	35.537
118	2	0	6.004	1.101	34.316
119	2	0	11.079	-2.989	36.885
120	2	0	11.996	-1.062	38.136
121	2	0	11.866	1.347	38.795
122	2	0	11.826	3.722	39.486
123	2	0	8.584	6.415	37.637
124	2	0	7.672	4.386	36.372
125	1	0	16.635	40.574	46.269
126	1	0	15.443	40.373	45.543
127	1	0	15.198	40.987	44.299
128	1	0	16.184	41.855	43.736
129	1	0	17.434	42.083	44.458
130	1	0	17.651	41.427	45.743
131	1	0	18.422	42.939	43.908
132	1	0	18.194	43.59	42.635
133	1	0	16.947	43.356	41.947
134	1	0	15.974	42.522	42.465
135	1	0	18.889	41.652	46.476
136	1	0	19.861	42.478	45.955
137	1	0	19.664	43.134	44.67
138	1	0	19.232	44.449	42.108
139	1	0	20.463	44.601	42.904
140	1	0	20.675	43.97	44.145
141	1	0	21.554	45.44	42.424
142	1	0	21.188	46.028	41.141
143	1	0	19.967	45.925	40.288
144	1	0	19.001	45.087	40.863
145	2	0	16.779	40.072	47.25
146	2	0	14.659	39.705	45.975
147	2	0	14.244	40.802	43.762
148	2	0	16.745	43.848	40.971
149	2	0	15.025	42.367	41.905
150	2	0	19.052	41.164	47.462
151	2	0	20.799	42.649	46.529
152	2	0	21.62	44.128	44.705
153	2	0	22.518	45.606	42.955
154	2	0	19.84	46.45	39.312
155	2	0	18.046	44.929	40.319
156	1	0	13.942	44.451	20.273
157	1	0	13.183	45.637	20.354
158	1	0	13.763	46.918	20.255
159	1	0	15.175	47.04	20.07
160	1	0	15.991	45.832	19.979
161	1	0	15.354	44.523	20.081
162	1	0	17.394	45.943	19.799
163	1	0	18.015	47.247	19.705
164	1	0	17.187	48.426	19.798
165	1	0	15.819	48.336	19.975
166	1	0	16.158	43.313	19.982
167	1	0	17.521	43.403	19.798
168	1	0	18.175	44.701	19.71
169	1	0	19.449	47.313	19.523
170	1	0	20.189	46.04	19.459
171	1	0	19.575	44.774	19.54
172	1	0	21.636	46.039	19.287
173	1	0	22.115	47.414	19.209
174	1	0	21.427	48.739	19.256
175	1	0	20.041	48.596	19.411
176	2	0	13.44	43.464	20.359
177	2	0	12.079	45.559	20.502
178	2	0	13.128	47.826	20.32
179	2	0	17.643	49.438	19.729
180	2	0	15.211	49.263	20.048
181	2	0	15.675	42.314	20.054
182	2	0	18.126	42.474	19.713
183	2	0	20.182	43.847	19.468
184	2	0	22.276	45.13	19.224
185	2	0	21.952	49.719	19.18
186	2	0	19.41	49.509	19.45
187	1	0	11.834	25.608	25.523
188	1	0	10.455	25.783	25.765
189	1	0	9.965	26.707	26.709
190	1	0	10.882	27.507	27.456
191	1	0	12.317	27.349	27.235
192	1	0	12.787	26.38	26.251
193	1	0	13.237	28.137	27.974
194	1	0	12.757	29.105	28.938
195	1	0	11.334	29.241	29.139
196	1	0	10.423	28.478	28.433
197	1	0	14.216	26.208	26.026
198	1	0	15.124	26.958	26.741
199	1	0	14.671	27.936	27.722
200	1	0	13.728	29.9	29.657
201	1	0	15.152	29.654	29.373
202	1	0	15.613	28.704	28.441
203	1	0	16.183	30.419	30.065
204	1	0	15.555	31.369	30.976
205	1	0	14.131	31.674	31.307
206	1	0	13.247	30.864	30.58
207	2	0	12.176	24.872	24.765
208	2	0	9.726	25.17	25.182
209	2	0	8.871	26.818	26.865
210	2	0	10.941	29.973	29.877
211	2	0	9.334	28.612	28.614
212	2	0	14.577	25.466	25.28
213	2	0	16.212	26.81	26.566
214	2	0	16.701	28.562	28.273
215	2	0	17.28	30.299	29.919
216	2	0	13.813	32.449	32.041
217	2	0	12.156	30.992	30.742
218	1	0	7.77	22.314	25.53
219	1	0	8.037	20.953	25.277
220	1	0	7.747	20.338	24.043
221	1	0	7.141	21.104	23
222	1	0	6.855	22.519	23.223
223	1	0	7.186	23.122	24.51
224	1	0	6.264	23.29	22.19
225	1	0	5.929	22.675	20.922
226	1	0	6.216	21.274	20.729
227	1	0	6.802	20.51	21.72
228	1	0	6.919	24.535	24.741
229	1	0	6.355	25.301	23.744
230	1	0	6.013	24.714	22.456
231	1	0	5.316	23.494	19.899
232	1	0	5.098	24.917	20.211
233	1	0	5.433	25.51	21.445
234	1	0	4.495	25.803	19.221
235	1	0	4.18	25.045	18.016
236	1	0	4.357	23.611	17.64
237	1	0	4.958	22.877	18.673
238	2	0	8.015	22.754	26.52
239	2	0	8.499	20.334	26.084
240	2	0	7.99	19.266	23.88
241	2	0	5.971	20.779	19.764
242	2	0	7.014	19.434	21.536
243	2	0	7.167	24.999	25.722
244	2	0	6.157	26.38	23.931
245	2	0	5.237	26.588	21.622
246	2	0	4.291	26.887	19.37
247	2	0	4.037	23.176	16.665
248	2	0	5.14	21.794	18.515
249	1	0	4.709	29.258	41.128
250	1	0	4.841	27.917	41.548
251	1	0	5.987	27.146	41.269
252	1	0	7.07	27.726	40.541
253	1	0	6.978	29.119	40.109
254	1	0	5.77	29.881	40.407
255	1	0	8.057	29.713	39.407
256	1	0	9.243	28.939	39.105
257	1	0	9.302	27.56	39.525
258	1	0	8.265	26.966	40.22
259	1	0	5.659	31.266	39.969
260	1	0	6.703	31.863	39.297
261	1	0	7.923	31.121	39.007
262	1	0	10.323	29.587	38.392
263	1	0	10.151	31.008	38.04
264	1	0	8.989	31.751	38.329
265	1	0	11.211	31.727	37.343
266	1	0	12.325	30.822	37.086
267	1	0	12.556	29.378	37.392
268	1	0	11.469	28.814	38.075
269	2	0	3.783	29.826	41.36
270	2	0	4.006	27.449	42.122
271	2	0	6.048	26.092	41.614
272	2	0	10.198	26.942	39.298
273	2	0	8.348	25.902	40.532
274	2	0	4.729	31.843	40.173
275	2	0	6.605	32.921	38.968
276	2	0	8.911	32.815	38.023
277	2	0	11.172	32.799	37.044
278	2	0	13.476	28.818	37.107
279	2	0	11.521	27.743	38.362
280	1	0	11.229	46.051	24.653
281	1	0	11.829	46.411	25.877
282	1	0	11.57	45.723	27.079
283	1	0	10.675	44.61	27.08
284	1	0	10.036	44.207	25.83
285	1	0	10.323	44.949	24.607
286	1	0	9.148	43.1	25.817
287	1	0	8.875	42.368	27.036
288	1	0	9.525	42.782	28.256
289	1	0	10.388	43.861	28.29
290	1	0	9.692	44.56	23.354
291	1	0	8.826	43.489	23.322
292	1	0	8.531	42.735	24.534
293	1	0	7.955	41.252	26.982
294	1	0	7.364	40.93	25.671
295	1	0	7.641	41.64	24.486
296	1	0	6.429	39.819	25.537
297	1	0	6.222	39.197	26.84
298	1	0	6.776	39.473	28.199
299	1	0	7.677	40.548	28.181
300	2	0	11.465	46.62	23.729
301	2	0	12.538	47.273	25.896
302	2	0	12.065	46.04	28.022
303	2	0	9.343	42.229	29.203
304	2	0	10.869	44.152	29.249
305	2	0	9.906	45.127	22.42
306	2	0	8.346	43.204	22.361
307	2	0	7.165	41.345	23.528
308	2	0	5.954	39.49	24.586
309	2	0	6.508	38.891	29.112
310	2	0	8.174	40.838	29.13
311	1	0	31.961	1.714	34.001
312	1	0	32.689	0.698	34.654
313	1	0	32.138	-0.086	35.688
314	1	0	30.792	0.145	36.109
315	1	0	30.009	1.19	35.455
316	1	0	30.613	1.976	34.385
317	1	0	28.667	1.421	35.855
318	1	0	28.075	0.623	36.908
319	1	0	28.865	-0.416	37.526
320	1	0	30.174	-0.652	37.152
321	1	0	29.837	3.009	33.711
322	1	0	28.532	3.246	34.087
323	1	0	27.914	2.47	35.154
324	1	0	26.705	0.892	37.287
325	1	0	25.991	1.947	36.546
326	1	0	26.57	2.713	35.515
327	1	0	24.598	2.249	36.855
328	1	0	24.144	1.387	37.939
329	1	0	24.81	0.315	38.737
330	1	0	26.14	0.122	38.335
331	2	0	32.435	2.3	33.184
332	2	0	33.741	0.501	34.336
333	2	0	32.739	-0.89	36.162
334	2	0	28.425	-1.062	38.316
335	2	0	30.747	-1.47	37.641
336	2	0	30.293	3.605	32.89
337	2	0	27.948	4.035	33.564
338	2	0	25.979	3.493	34.993
339	2	0	23.976	3.015	36.337
340	2	0	24.308	-0.265	39.546
341	2	0	26.744	-0.654	38.852
342	1	0	25.702	37.879	23.592
343	1	0	24.629	36.965	23.55
344	1	0	24.808	35.594	23.275
345	1	0	26.123	35.083	23.05
346	1	0	27.258	36.001	23.09
347	1	0	27.033	37.416	23.365
348	1	0	28.57	35.507	22.872
349	1	0	28.782	34.098	22.616
350	1	0	27.644	33.209	22.599
351	1	0	26.358	33.672	22.804
352	1	0	28.159	38.338	23.422
353	1	0	29.439	37.876	23.21
354	1	0	29.682	36.467	22.929
355	1	0	30.136	33.639	22.397
356	1	0	31.214	34.642	22.455
357	1	0	31	36.01	22.716
358	1	0	32.601	34.245	22.244
359	1	0	32.663	32.811	21.992
360	1	0	31.621	31.743	21.921
361	1	0	30.336	32.258	22.145
362	2	0	25.512	38.952	23.805
363	2	0	23.593	37.342	23.724
364	2	0	23.932	34.912	23.24
365	2	0	27.782	32.119	22.43
366	2	0	25.507	32.955	22.794
367	2	0	27.991	39.415	23.643
368	2	0	30.293	38.588	23.26
369	2	0	31.855	36.717	22.754
370	2	0	33.479	34.931	22.278
371	2	0	31.841	30.669	21.722
372	2	0	29.473	31.559	22.125
373	1	0	38.254	28.21	17.192
374	1	0	39.478	27.843	16.596
375	1	0	40.101	28.606	15.59
376	1	0	39.472	29.802	15.124
377	1	0	38.207	30.22	15.723
378	1	0	37.602	29.406	16.773
379	1	0	37.571	31.415	15.299
380	1	0	38.167	32.228	14.261
381	1	0	39.412	31.792	13.675
382	1	0	40.045	30.632	14.082
383	1	0	36.35	29.808	17.399
384	1	0	35.725	30.968	16.999
385	1	0	36.308	31.795	15.951
386	1	0	37.488	33.442	13.863
387	1	0	36.228	33.777	14.549
388	1	0	35.653	32.982	15.561
389	1	0	35.492	34.988	14.207
390	1	0	36.202	35.705	13.155
391	1	0	37.472	35.429	12.418
392	1	0	38.074	34.237	12.846
393	2	0	37.809	27.573	17.986
394	2	0	39.986	26.909	16.937
395	2	0	41.098	28.256	15.18
396	2	0	39.894	32.396	12.876
397	2	0	41.007	30.335	13.609
398	2	0	35.898	29.184	18.202
399	2	0	34.771	31.273	17.484
400	2	0	34.701	33.285	16.044
401	2	0	34.536	35.315	14.676
402	2	0	37.888	36.092	11.624
403	2	0	39.028	33.925	12.371
404	1	0	22.608	46.629	1.044
405	1	0	23.635	45.738	0.667
406	1	0	23.935	44.573	1.401
407	1	0	23.18	44.266	2.575
408	1	0	22.11	45.166	2.996
409	1	0	21.83	46.363	2.21
410	1	0	21.354	44.872	4.16
411	1	0	21.643	43.681	4.931
412	1	0	22.707	42.809	4.496
413	1	0	23.454	43.08	3.365
414	1	0	20.767	47.27	2.62
415	1	0	20.022	46.999	3.747
416	1	0	20.287	45.808	4.543
417	1	0	20.847	43.418	6.111
418	1	0	19.788	44.385	6.448
419	1	0	19.513	45.543	5.693
420	1	0	18.946	44.177	7.62
421	1	0	19.351	42.951	8.297
422	1	0	20.409	41.935	8.018
423	1	0	21.139	42.253	6.864
424	2	0	22.408	47.536	0.436
425	2	0	24.236	45.965	-0.246
426	2	0	24.754	43.9	1.072
427	2	0	22.951	41.891	5.073
428	2	0	24.268	42.385	3.062
429	2	0	20.552	48.183	2.022
430	2	0	19.209	47.698	4.047
431	2	0	18.699	46.235	5.997
432	2	0	18.121	44.85	7.947
433	2	0	20.597	41.038	8.653
434	2	0	21.958	41.572	6.549
435	1	0	28.921	43.107	23.711
436	1	0	29.865	43.475	22.73
437	1	0	30.897	44.401	22.983
438	1	0	31.007	45.002	24.274
439	1	0	30.039	44.655	25.311
440	1	0	28.989	43.687	25.013
441	1	0	30.13	45.258	26.592
442	1	0	31.178	46.217	26.874
443	1	0	32.134	46.527	25.838
444	1	0	32.061	45.95	24.584
445	1	0	28.028	43.32	26.044
446	1	0	28.104	43.893	27.295
447	1	0	29.139	44.871	27.605
448	1	0	31.231	46.817	28.189
449	1	0	30.212	46.396	29.168
450	1	0	29.202	45.454	28.89
451	1	0	30.218	46.953	30.516
452	1	0	31.329	47.888	30.654
453	1	0	32.402	48.343	29.721
454	1	0	32.266	47.748	28.458
455	2	0	28.125	42.37	23.468
456	2	0	29.793	43.019	21.714
457	2	0	31.62	44.664	22.182
458	2	0	32.961	47.243	26.034
459	2	0	32.818	46.212	23.812
460	2	0	27.229	42.578	25.825
461	2	0	27.365	43.601	28.073
462	2	0	28.466	45.172	29.671
463	2	0	29.496	46.693	31.322
464	2	0	33.255	49.016	30.021
465	2	0	33.007	48.008	27.673
466	1	0	13.372	12.004	17.073
467	1	0	12.579	12.892	17.828
468	1	0	11.923	12.502	19.013
469	1	0	12.056	11.16	19.485
470	1	0	12.872	10.213	18.73
471	1	0	13.533	10.654	17.506
472	1	0	13.013	8.879	19.192
473	1	0	12.349	8.454	20.406
474	1	0	11.545	9.408	21.131
475	1	0	11.398	10.713	20.699
476	1	0	14.349	9.719	16.744
477	1	0	14.498	8.42	17.178
478	1	0	13.846	7.965	18.398
479	1	0	12.519	7.085	20.841
480	1	0	13.37	6.211	20.014
481	1	0	14.012	6.631	18.832
482	1	0	13.587	4.82	20.391
483	1	0	12.86	4.527	21.621
484	1	0	11.979	5.354	22.499
485	1	0	11.857	6.668	22.024
486	2	0	13.872	12.354	16.145
487	2	0	12.466	13.945	17.474
488	2	0	11.308	13.234	19.578
489	2	0	11.023	9.106	22.065
490	2	0	10.772	11.421	21.284
491	2	0	14.855	10.05	15.81
492	2	0	15.126	7.717	16.587
493	2	0	14.638	5.924	18.25
494	2	0	14.198	4.09	19.816
495	2	0	11.472	4.97	23.414
496	2	0	11.221	7.379	22.591
497	1	0	3.081	44.358	28.319
498	1	0	2.942	43.549	27.172
499	1	0	1.943	43.774	26.204
500	1	0	1.028	44.857	26.371
501	1	0	1.142	45.716	27.547
502	1	0	2.189	45.452	28.528
503	1	0	0.238	46.795	27.723
504	1	0	-0.797	47.046	26.742
505	1	0	-0.888	46.183	25.588
506	1	0	-0.015	45.128	25.399
507	1	0	2.312	46.301	29.704
508	1	0	1.441	47.353	29.893
509	1	0	0.391	47.63	28.923
510	1	0	-1.702	48.153	26.962
511	1	0	-1.507	48.957	28.182
512	1	0	-0.497	48.708	29.132
513	1	0	-2.389	50.083	28.469
514	1	0	-3.376	50.212	27.404
515	1	0	-3.629	49.44	26.151
516	1	0	-2.715	48.388	25.999
517	2	0	3.885	44.145	29.055
518	2	0	3.653	42.7	27.025
519	2	0	1.869	43.113	25.314
520	2	0	-1.674	46.354	24.821
521	2	0	-0.117	44.483	24.499
522	2	0	3.108	46.105	30.456
523	2	0	1.544	47.99	30.798
524	2	0	-0.404	49.347	30.035
525	2	0	-2.324	50.737	29.368
526	2	0	-4.448	49.67	25.43
527	2	0	-2.802	47.736	25.104
528	1	0	19.216	46.361	16.468
529	1	0	17.808	46.376	16.552
530	1	0	17.009	45.319	16.073
531	1	0	17.63	44.179	15.478
532	1	0	19.087	44.128	15.38
533	1	0	19.881	45.241	15.887
534	1	0	19.714	42.998	14.796
535	1	0	18.912	41.903	14.29
536	1	0	17.475	41.976	14.402
537	1	0	16.846	43.068	14.972
538	1	0	21.335	45.199	15.801
539	1	0	21.962	44.108	15.238
540	1	0	21.182	42.989	14.726
541	1	0	19.586	40.777	13.682
542	1	0	21.058	40.808	13.652
543	1	0	21.833	41.874	14.152
544	1	0	21.801	39.697	13.068
545	1	0	20.869	38.696	12.564
546	1	0	19.378	38.613	12.539
547	1	0	18.791	39.732	13.146
548	2	0	19.805	47.21	16.875
549	2	0	17.308	47.252	17.031
550	2	0	15.903	45.37	16.167
551	2	0	16.84	41.145	14.026
552	2	0	15.737	43.092	15.041
553	2	0	21.944	46.045	16.188
554	2	0	23.073	44.093	15.176
555	2	0	22.94	41.842	14.091
556	2	0	22.911	39.627	13.011
557	2	0	18.805	37.771	12.086
558	2	0	17.683	39.791	13.188
559	1	0	22.73	30.811	23.529
560	1	0	23.203	30.7	22.205
561	1	0	24.512	30.276	21.899
562	1	0	25.411	29.942	22.958
563	1	0	24.952	30.036	24.341
564	1	0	23.589	30.479	24.618
565	1	0	25.827	29.684	25.401
566	1	0	27.175	29.242	25.114
567	1	0	27.607	29.166	23.739
568	1	0	26.767	29.498	22.693
569	1	0	23.116	30.571	25.992
570	1	0	23.952	30.231	27.033
571	1	0	25.313	29.78	26.775
572	1	0	28.031	28.89	26.226
573	1	0	27.467	28.996	27.583
574	1	0	26.153	29.427	27.854
575	1	0	28.273	28.653	28.748
576	1	0	29.604	28.243	28.315
577	1	0	30.242	28.122	26.971
578	1	0	29.356	28.473	25.942
579	2	0	21.688	31.145	23.721
580	2	0	22.511	30.948	21.365
581	2	0	24.839	30.19	20.842
582	2	0	28.637	28.827	23.494
583	2	0	27.13	29.415	21.645
584	2	0	22.079	30.912	26.205
585	2	0	23.58	30.303	28.079
586	2	0	25.784	29.49	28.898
587	2	0	27.93	28.706	29.806
588	2	0	31.297	27.8	26.808
589	2	0	29.717	28.426	24.893
590	1	0	15.564	21.428	17.749
591	1	0	16.655	22.31	17.613
592	1	0	17.566	22.55	18.662
593	1	0	17.401	21.879	19.912
594	1	0	16.28	20.958	20.087
595	1	0	15.352	20.743	18.982
596	1	0	16.108	20.282	21.321
597	1	0	17.048	20.487	22.403
598	1	0	18.143	21.408	22.209
599	1	0	18.32	22.084	21.016
600	1	0	14.222	19.84	19.146
601	1	0	14.031	19.185	20.344
602	1	0	14.957	19.376	21.452
603	1	0	16.851	19.754	23.635
604	1	0	15.676	18.87	23.719
605	1	0	14.756	18.686	22.667
606	1	0	15.41	18.113	24.938
607	1	0	16.455	18.384	25.917
608	1	0	17.672	19.249	25.893
609	1	0	17.801	19.927	24.673
610	2	0	14.872	21.268	16.894
611	2	0	16.801	22.833	16.632
612	2	0	18.413	23.254	18.515
613	2	0	18.871	21.592	23.028
614	2	0	19.176	22.786	20.904
615	2	0	13.511	19.676	18.306
616	2	0	13.163	18.499	20.46
617	2	0	13.89	18.003	22.79
618	2	0	14.544	17.43	25.095
619	2	0	18.39	19.342	26.742
620	2	0	18.67	20.603	24.533
621	1	0	29.483	20.158	25.58
622	1	0	29.981	18.808	25.309
623	1	0	30.638	18.026	26.253
624	1	0	30.887	18.479	27.616
625	1	0	30.543	19.89	27.83
626	1	0	29.84	20.731	26.879
627	1	0	30.379	20.521	29.126
628	1	0	30.623	19.715	30.323
629	1	0	31.132	18.361	30.1
630	1	0	31.26	17.784	28.841
631	1	0	30.169	20.388	31.512
632	1	0	29.528	21.642	31.423
633	1	0	29.244	22.353	30.222
634	1	0	29.632	21.763	28.994
635	1	0	28.57	21.008	24.862
636	1	0	28.093	22.2	25.448
637	1	0	28.412	22.678	26.751
638	1	0	29.286	21.898	27.548
639	2	0	29.783	18.364	24.311
640	2	0	30.931	16.991	25.97
641	2	0	31.39	17.743	30.986
642	2	0	31.606	16.73	28.776
643	2	0	30.278	19.895	32.5
644	2	0	29.182	22.101	32.378
645	2	0	28.672	23.306	30.24
646	2	0	28.197	20.696	23.865
647	2	0	27.37	22.803	24.851
648	2	0	27.933	23.595	27.159
649	1	0	17.818	26.928	9.904
650	1	0	17.888	26.237	11.193
651	1	0	19.044	26.146	11.961
652	1	0	20.308	26.744	11.552
653	1	0	20.272	27.294	10.191
654	1	0	19.085	27.426	9.367
655	1	0	21.257	28.188	9.611
656	1	0	22.424	28.537	10.422
657	1	0	22.534	27.869	11.719
658	1	0	21.555	27.034	12.248
659	1	0	23.189	29.586	9.8
660	1	0	22.759	30.168	8.589
661	1	0	21.569	29.841	7.878
662	1	0	20.733	28.833	8.418
663	1	0	16.709	27.345	9.088
664	1	0	16.919	28.169	7.963
665	1	0	18.173	28.68	7.519
666	1	0	19.329	28.345	8.266
667	2	0	16.958	25.793	11.605
668	2	0	18.981	25.64	12.949
669	2	0	23.433	28.07	12.339
670	2	0	21.712	26.612	13.264
671	2	0	24.105	29.967	10.298
672	2	0	23.39	30.981	8.162
673	2	0	21.275	30.396	6.96
674	2	0	15.676	27.055	9.373
675	2	0	16.019	28.49	7.379
676	2	0	18.231	29.376	6.654
677	1	0	16.756	2.16	7.36
678	1	0	17.529	2.744	6.265
679	1	0	17.155	3.902	5.589
680	1	0	15.95	4.653	5.916
681	1	0	15.101	3.977	6.905
682	1	0	15.464	2.786	7.65
683	1	0	14.013	4.596	7.64
684	1	0	13.681	5.99	7.339
685	1	0	14.426	6.608	6.243
686	1	0	15.48	5.989	5.577
687	1	0	12.748	6.526	8.295
688	1	0	12.314	5.74	9.383
689	1	0	12.726	4.406	9.669
690	1	0	13.658	3.791	8.798
691	1	0	17.073	1.143	8.328
692	1	0	16.203	0.897	9.412
693	1	0	14.987	1.589	9.685
694	1	0	14.594	2.626	8.804
695	2	0	18.491	2.265	5.986
696	2	0	17.837	4.298	4.805
697	2	0	14.162	7.648	5.955
698	2	0	16.017	6.562	4.791
699	2	0	12.407	7.579	8.203
700	2	0	11.609	6.227	10.097
701	2	0	12.374	3.884	10.584
702	2	0	18.03	0.586	8.251
703	2	0	16.513	0.11	10.137
704	2	0	14.396	1.366	10.599
705	1	0	10.359	21.485	13.278
706	1	0	10.983	21.853	14.549
707	1	0	11.029	21.016	15.659
708	1	0	10.461	19.674	15.656
709	1	0	9.702	19.369	14.437
710	1	0	9.646	20.206	13.253
711	1	0	9.308	18.04	14.009
712	1	0	9.631	16.91	14.881
713	1	0	10.227	17.241	16.176
714	1	0	10.613	18.527	16.542
715	1	0	9.409	15.653	14.215
716	1	0	8.987	15.622	12.868
717	1	0	8.758	16.756	12.037
718	1	0	8.964	18.042	12.595
719	1	0	10.422	22.075	11.966
720	1	0	9.884	21.398	10.85
721	1	0	9.27	20.113	10.867
722	1	0	9.179	19.437	12.109
723	2	0	11.491	22.837	14.618
724	2	0	11.573	21.367	16.563
725	2	0	10.423	16.415	16.891
726	2	0	11.105	18.67	17.528
727	2	0	9.615	14.703	14.749
728	2	0	8.852	14.618	12.405
729	2	0	8.488	16.637	10.965
730	2	0	10.943	23.044	11.824
731	2	0	9.983	21.9	9.86
732	2	0	8.935	19.625	9.927
733	1	0	3.262	43.087	42.345
734	1	0	4.263	42.269	43.03
735	1	0	5.5	41.94	42.484
736	1	0	5.92	42.388	41.162
737	1	0	4.849	43.062	40.418
738	1	0	3.557	43.447	40.958
739	1	0	5.036	43.883	39.236
740	1	0	6.395	44.007	38.708
741	1	0	7.433	43.198	39.348
742	1	0	7.213	42.436	40.491
743	1	0	6.467	45.043	37.715
744	1	0	5.334	45.816	37.384
745	1	0	4.046	45.697	37.98
746	1	0	3.875	44.725	38.998
747	1	0	2.067	43.739	42.812
748	1	0	1.368	44.638	41.977
749	1	0	1.742	45.013	40.655
750	1	0	2.919	44.442	40.11
751	2	0	4.045	41.929	44.064
752	2	0	6.215	41.359	43.105
753	2	0	8.459	43.231	38.926
754	2	0	8.072	41.893	40.94
755	2	0	7.441	45.267	37.235
756	2	0	5.476	46.609	36.615
757	2	0	3.22	46.389	37.706
758	2	0	1.718	43.571	43.852
759	2	0	0.461	45.123	42.405
760	2	0	1.168	45.78	40.092
761	1	0	32.286	46.682	41.394
762	1	0	31.308	46.98	40.347
763	1	0	29.934	47.018	40.564
764	1	0	29.332	46.749	41.862
765	1	0	30.301	46.297	42.867
766	1	0	31.741	46.282	42.692
767	1	0	30.068	46.265	44.3
768	1	0	28.746	46.651	44.793
769	1	0	27.733	46.934	43.775
770	1	0	28.002	46.98	42.41
771	1	0	28.747	46.811	46.225
772	1	0	29.94	46.655	46.96
773	1	0	31.224	46.354	46.421
774	1	0	31.332	46.189	45.018
775	1	0	33.716	46.837	41.454
776	1	0	34.405	46.668	42.673
777	1	0	33.815	46.36	43.932
778	1	0	32.408	46.197	43.984
779	2	0	31.679	47.243	39.334
780	2	0	29.279	47.328	39.721
781	2	0	26.703	47.175	44.111
782	2	0	27.178	47.263	41.718
783	2	0	27.815	47.112	46.746
784	2	0	29.881	46.819	48.061
785	2	0	32.125	46.319	47.07
786	2	0	34.276	47.134	40.542
787	2	0	35.51	46.818	42.657
788	2	0	34.428	46.31	44.858
789	1	0	19.242	5.178	22.233
790	1	0	20.428	4.435	21.808
791	1	0	21.73	4.772	22.167
792	1	0	22.042	5.907	23.025
793	1	0	20.862	6.719	23.348
794	1	0	19.489	6.391	23.013
795	1	0	20.786	7.719	24.398
796	1	0	22	7.995	25.167
797	1	0	23.215	7.305	24.732
798	1	0	23.241	6.331	23.738
799	1	0	21.714	8.828	26.305
800	1	0	20.389	9.23	26.58
801	1	0	19.232	8.878	25.827
802	1	0	19.401	8.047	24.693
803	1	0	17.833	4.901	22.135
804	1	0	16.896	5.73	22.788
805	1	0	17.203	6.854	23.61
806	1	0	18.563	7.201	23.788
807	2	0	20.285	3.518	21.2
808	2	0	22.558	4.113	21.828
809	2	0	24.168	7.546	25.249
810	2	0	24.206	5.827	23.513
811	2	0	22.534	9.123	26.991
812	2	0	20.233	9.859	27.487
813	2	0	18.219	9.199	26.151
814	2	0	17.482	4.011	21.573
815	2	0	15.819	5.467	22.673
816	2	0	16.4	7.415	24.136
817	1	0	0.22	33.675	39.362
818	1	0	0.498	34.801	38.47
819	1	0	1.365	34.731	37.383
820	1	0	2.081	33.514	37.025
821	1	0	1.922	32.439	38.012
822	1	0	1.009	32.463	39.14
823	1	0	2.253	31.043	37.796
824	1	0	2.839	30.67	36.508
825	1	0	3.144	31.768	35.589
826	1	0	2.8	33.094	35.828
827	1	0	2.88	29.24	36.349
828	1	0	2.353	28.394	37.348
829	1	0	1.724	28.814	38.555
830	1	0	1.609	30.205	38.796
831	1	0	-0.787	33.467	40.37
832	1	0	-0.949	32.198	40.964
833	1	0	-0.203	31.025	40.65
834	1	0	0.807	31.12	39.662
835	2	0	-0.043	35.754	38.645
836	2	0	1.472	35.625	36.732
837	2	0	3.64	31.526	34.626
838	2	0	3.034	33.852	35.049
839	2	0	3.29	28.8	35.416
840	2	0	2.403	27.298	37.157
841	2	0	1.279	28.076	39.257
842	2	0	-1.461	34.301	40.659
843	2	0	-1.753	32.102	41.729
844	2	0	-0.443	30.049	41.126
845	1	0	20.069	37.513	36.539
846	1	0	19.832	36.447	37.512
847	1	0	18.568	36.053	37.944
848	1	0	17.343	36.666	37.449
849	1	0	17.593	37.824	36.581
850	1	0	18.89	38.259	36.098
851	1	0	16.617	38.457	35.712
852	1	0	15.252	37.933	35.724
853	1	0	14.966	36.894	36.715
854	1	0	15.932	36.306	37.524
855	1	0	14.478	38.491	34.647
856	1	0	15.063	39.396	33.734
857	1	0	16.418	39.833	33.739
858	1	0	17.276	39.315	34.739
859	1	0	21.241	37.928	35.815
860	1	0	21.152	38.902	34.797
861	1	0	19.96	39.547	34.359
862	1	0	18.744	39.192	34.991
863	2	0	20.709	35.893	37.906
864	2	0	18.49	35.205	38.658
865	2	0	13.922	36.528	36.811
866	2	0	15.62	35.501	38.225
867	2	0	13.423	38.179	34.506
868	2	0	14.412	39.779	32.914
869	2	0	16.809	40.508	32.947
870	2	0	22.22	37.451	36.032
871	2	0	22.096	39.17	34.27
872	2	0	19.972	40.265	33.51
873	1	0	19.374	37.156	16.377
874	1	0	18.315	38.159	16.477
875	1	0	18.075	38.918	17.618
876	1	0	18.874	38.791	18.83
877	1	0	19.84	37.688	18.775
878	1	0	20.129	36.884	17.602
879	1	0	20.975	37.52	19.665
880	1	0	21.154	38.496	20.742
881	1	0	20.086	39.485	20.904
882	1	0	19.019	39.619	20.021
883	1	0	22.446	38.359	21.361
884	1	0	23.369	37.406	20.881
885	1	0	23.168	36.517	19.787
886	1	0	21.936	36.591	19.091
887	1	0	19.93	36.451	15.253
888	1	0	21.091	35.663	15.405
889	1	0	21.838	35.498	16.606
890	1	0	21.388	36.173	17.767
891	2	0	17.699	38.363	15.576
892	2	0	17.281	39.695	17.579
893	2	0	20.149	40.195	21.755
894	2	0	18.279	40.427	20.205
895	2	0	22.737	39.039	22.189
896	2	0	24.364	37.359	21.381
897	2	0	23.979	35.837	19.445
898	2	0	19.473	36.57	14.249
899	2	0	21.476	35.153	14.493
900	2	0	22.782	34.911	16.618
901	1	0	25.033	46.526	15.833
902	1	0	24.632	47.609	14.935
903	1	0	24.98	47.672	13.59
904	1	0	25.781	46.646	12.934
905	1	0	26.304	45.643	13.871
906	1	0	25.946	45.529	15.273
907	1	0	26.882	44.364	13.504
908	1	0	27.01	44.055	12.08
909	1	0	26.631	45.117	11.149
910	1	0	26.062	46.325	11.541
911	1	0	27.385	42.68	11.879
912	1	0	27.541	41.813	12.983
913	1	0	27.337	42.155	14.351
914	1	0	26.94	43.478	14.657
915	1	0	24.621	46.163	17.163
916	1	0	25.059	44.953	17.743
917	1	0	25.892	43.98	17.118
918	1	0	26.339	44.231	15.8
919	2	0	23.984	48.414	15.341
920	2	0	24.59	48.516	12.981
921	2	0	26.77	44.938	10.062
922	2	0	25.768	47.051	10.753
923	2	0	27.516	42.288	10.849
924	2	0	27.825	40.76	12.759
925	2	0	27.436	41.391	15.152
926	2	0	23.929	46.823	17.726
927	2	0	24.7	44.733	18.774
928	2	0	26.144	43.027	17.632
929	1	0	10.509	36.003	0.332
930	1	0	9.413	36.678	1.028
931	1	0	9.548	37.289	2.271
932	1	0	10.809	37.315	3.001
933	1	0	11.856	36.495	2.377
934	1	0	11.764	35.865	1.073
935	1	0	13.271	36.548	2.695
936	1	0	13.701	37.451	3.763
937	1	0	12.639	38.152	4.484
938	1	0	11.293	38.09	4.136
939	1	0	15.135	37.563	3.804
940	1	0	15.934	36.885	2.859
941	1	0	15.456	36.073	1.79
942	1	0	14.056	35.918	1.644
943	1	0	10.651	35.542	-1.024
944	1	0	11.9	35.083	-1.495
945	1	0	13.112	35.035	-0.747
946	1	0	13.084	35.484	0.596
947	2	0	8.428	36.743	0.522
948	2	0	8.67	37.82	2.698
949	2	0	12.924	38.807	5.334
950	2	0	10.567	38.698	4.717
951	2	0	15.615	38.224	4.557
952	2	0	17.037	37.018	2.937
953	2	0	16.158	35.617	1.058
954	2	0	9.785	35.589	-1.716
955	2	0	11.95	34.758	-2.56
956	2	0	14.064	34.713	-1.221
957	1	0	42.235	39.096	41.308
958	1	0	41.588	39.914	42.335
959	1	0	40.749	39.399	43.318
960	1	0	40.436	37.979	43.419
961	1	0	40.952	37.192	42.292
962	1	0	41.847	37.685	41.262
963	1	0	41.067	35.746	42.259
964	1	0	40.582	34.992	43.415
965	1	0	39.919	35.768	44.463
966	1	0	39.847	37.158	44.469
967	1	0	40.98	33.61	43.34
968	1	0	41.783	33.152	42.275
969	1	0	42.295	33.947	41.209
970	1	0	41.975	35.327	41.202
971	1	0	43.305	39.371	40.385
972	1	0	43.875	38.333	39.617
973	1	0	43.509	36.957	39.665
974	1	0	42.478	36.578	40.56
975	2	0	41.813	41	42.361
976	2	0	40.347	40.094	44.087
977	2	0	39.484	35.223	45.326
978	2	0	39.365	37.659	45.336
979	2	0	40.689	32.91	44.151
980	2	0	42.068	32.074	42.284
981	2	0	42.973	33.514	40.442
982	2	0	43.716	40.399	40.311
983	2	0	44.71	38.612	38.934
984	2	0	44.055	36.195	39.067
985	1	0	18.063	23.058	3.507
986	1	0	17.557	22.033	4.421
987	1	0	16.383	22.168	5.154
988	1	0	15.541	23.355	5.082
989	1	0	16.141	24.442	4.297
990	1	0	17.345	24.333	3.494
991	1	0	15.448	25.621	3.812
992	1	0	14.039	25.782	4.174
993	1	0	13.482	24.774	5.075
994	1	0	14.177	23.646	5.502
995	1	0	13.436	26.865	3.443
996	1	0	14.182	27.587	2.486
997	1	0	15.536	27.339	2.12
998	1	0	16.214	26.277	2.765
999	1	0	19.087	23.029	2.497
1000	1	0	19.26	24.125	1.624
1001	1	0	18.483	25.319	1.611
1002	1	0	17.436	25.442	2.556
1003	2	0	18.115	21.076	4.504
1004	2	0	16.052	21.311	5.781
1005	2	0	12.429	24.89	5.406
1006	2	0	13.647	22.911	6.147
1007	2	0	12.364	27.107	3.599
1008	2	0	13.646	28.399	1.943
1009	2	0	16.024	27.917	1.305
1010	2	0	19.718	22.124	2.376
1011	2	0	20.062	24.035	0.855
1012	2	0	18.653	26.105	0.844
1013	1	0	5.907	7.438	33.283
1014	1	0	4.957	6.743	34.152
1015	1	0	5.039	6.738	35.54
1016	1	0	6.089	7.437	36.27
1017	1	0	7.126	7.994	35.392
1018	1	0	7.063	8.045	33.943