ITEM: TIMESTEP
301000
ITEM: NUMBER OF ATOMS
1530
ITEM: BOX BOUNDS pp pp pp
-1.9579990000000000e+00 4.5016998999999998e+01
5.6400300000000003e-01 4.7435999000000002e+01
-7.7195199999999997e-01 4.6272953000000001e+01
ITEM: ATOMS id type xs ys zs 
985 1 0.432048 0.494916 0.111474 
429 2 0.415126 0.000416351 0.0210839 
1298 1 0.499297 0.443981 0.096284 
678 1 0.412553 0.0622063 0.141512 
679 1 0.40285 0.088888 0.133157 
1393 1 0.485272 0.302934 0.0889415 
989 1 0.38185 0.499341 0.119555 
695 2 0.419178 0.0498674 0.122686 
696 2 0.397424 0.0897994 0.108641 
698 2 0.365234 0.142408 0.129027 
986 1 0.433549 0.477284 0.137857 
431 2 0.393305 -0.000207798 0.124384 
1395 2 0.47642 0.284649 0.0890051 
1149 1 0.273682 0.198863 0.131678 
1150 1 0.25818 0.208364 0.116214 
1152 2 0.246366 0.218165 0.104718 
1394 1 0.496954 0.322605 0.0852084 
1385 1 0.440487 0.32953 0.0304241 
1387 2 0.449464 0.344909 0.0157548 
1294 1 0.485798 0.402367 0.067626 
1295 1 0.464939 0.396495 0.0900581 
1296 1 0.467031 0.406466 0.118158 
1297 1 0.486503 0.430325 0.122264 
1300 1 0.432724 0.365887 0.129242 
1301 1 0.435891 0.353244 0.102342 
1302 1 0.452549 0.368689 0.083456 
1312 2 0.422963 0.333909 0.0966971 
1313 2 0.461143 0.362598 0.0616698 
1310 2 0.47954 0.39787 0.0477226 
1386 1 0.428371 0.313503 0.0434442 
1388 2 0.418109 0.295472 0.0528008 
1299 1 0.447814 0.392278 0.136069 
1010 2 0.476059 0.494313 0.0978505 
424 2 0.473246 0.00621131 0.0107318 
1003 2 0.453483 0.464868 0.14077 
687 1 0.315971 0.102217 0.20384 
688 1 0.319477 0.0802071 0.227511 
689 1 0.343834 0.0639807 0.232102 
700 2 0.301566 0.0706622 0.235771 
701 2 0.345869 0.0468778 0.243345 
699 2 0.292115 0.109575 0.200624 
684 1 0.339567 0.109769 0.186161 
1128 1 0.314541 0.158158 0.232979 
1129 1 0.291671 0.146287 0.253964 
1135 1 0.261488 0.144792 0.246249 
1136 1 0.25334 0.154566 0.220826 
1146 2 0.242461 0.135784 0.260109 
1147 2 0.235215 0.153812 0.21473 
681 1 0.389706 0.0979346 0.178606 
685 1 0.340879 0.119857 0.158343 
677 1 0.415184 0.0536269 0.170075 
690 1 0.366981 0.0718733 0.214378 
682 1 0.404378 0.0749139 0.186691 
683 1 0.367918 0.0978726 0.197658 
691 1 0.41995 0.0244575 0.180313 
692 1 0.413652 0.0167749 0.209116 
693 1 0.391316 0.0316862 0.218827 
694 1 0.391659 0.0590287 0.207965 
702 2 0.43344 0.00930326 0.169022 
704 2 0.379356 0.0247636 0.236116 
1127 1 0.342502 0.150088 0.239281 
1126 1 0.352427 0.13943 0.266612 
1142 2 0.371382 0.140066 0.270423 
1358 3 0.465376 0.174631 0.275781 
1138 1 0.317676 0.187636 0.164175 
1139 1 0.290678 0.181995 0.154953 
1148 2 0.332401 0.200185 0.152375 
1140 1 0.269371 0.166534 0.170629 
1151 2 0.25109 0.162694 0.161547 
1131 1 0.306442 0.161504 0.206387 
1132 1 0.326512 0.176499 0.191725 
1137 1 0.274765 0.159092 0.198638 
1144 2 0.370849 0.186184 0.18409 
1133 1 0.356951 0.175355 0.1981 
1134 1 0.366198 0.161763 0.221954 
1145 2 0.388884 0.160292 0.226815 
697 2 0.324811 0.134421 0.151743 
1303 1 0.483117 0.441164 0.150048 
680 1 0.387794 0.108135 0.149035 
731 2 0.266399 0.454601 0.270805 
1319 2 0.417378 0.41302 0.200129 
1006 2 0.358828 0.48085 0.183695 
1306 1 0.417988 0.354284 0.152193 
1314 2 0.488106 0.461291 0.157628 
987 1 0.410136 0.474129 0.153178 
988 1 0.382113 0.483072 0.144899 
994 1 0.358021 0.489488 0.163048 
1318 1 0.366088 0.346202 0.20389 
1004 2 0.41143 0.456734 0.170078 
1320 2 0.348815 0.336946 0.211732 
1304 1 0.466343 0.429623 0.172818 
1305 1 0.445204 0.405397 0.162128 
1307 1 0.408524 0.369707 0.176207 
1308 1 0.422774 0.398594 0.181266 
1315 2 0.463396 0.44039 0.192188 
1317 1 0.385147 0.356785 0.193982 
1130 1 0.300579 0.136102 0.281563 
1316 2 0.408612 0.334887 0.150818 
732 2 0.264423 0.401897 0.279986 
1357 2 0.449671 0.163029 0.269815 
686 1 0.366728 0.125321 0.144496 
730 2 0.253814 0.488729 0.301898 
1143 2 0.289058 0.119665 0.292435 
1338 3 0.235113 0.124464 0.344048 
1337 2 0.241968 0.129693 0.366039 
1125 1 0.329782 0.132303 0.285826 
1141 2 0.336237 0.12724 0.309792 
480 1 0.382403 0.0918143 0.418721 
481 1 0.396701 0.104988 0.397853 
493 2 0.416839 0.097351 0.395702 
726 2 0.277249 0.408772 0.424047 
477 1 0.393574 0.136158 0.354205 
478 1 0.385137 0.131484 0.383591 
492 2 0.405642 0.121261 0.342229 
473 1 0.343224 0.1328 0.4182 
472 1 0.357044 0.142879 0.393691 
476 1 0.383036 0.160015 0.341004 
549 2 0.388198 0.0128424 0.403992 
548 2 0.438739 0.0135261 0.413574 
728 2 0.196742 0.31989 0.342156 
467 1 0.338481 0.224609 0.37172 
468 1 0.317448 0.211528 0.391715 
469 1 0.321042 0.182484 0.396426 
487 2 0.337063 0.246683 0.369811 
488 2 0.302405 0.222714 0.403457 
727 2 0.211416 0.33318 0.391734 
470 1 0.348868 0.170488 0.383097 
466 1 0.358348 0.211109 0.354214 
471 1 0.364894 0.180053 0.359552 
486 2 0.372352 0.224097 0.343748 
491 2 0.385923 0.163486 0.318014 
1253 2 0.0829308 0.408779 0.316712 
1237 1 0.078177 0.424614 0.330893 
1238 1 0.0746893 0.452155 0.320369 
1239 1 0.0703496 0.476231 0.338023 
1503 1 0.136067 0.459805 0.33358 
1504 1 0.158601 0.446581 0.348861 
1508 2 0.117712 0.449487 0.324173 
1509 2 0.159378 0.425628 0.354323 
1242 1 0.0884774 0.426837 0.358326 
1255 2 0.100693 0.40721 0.368532 
1258 2 0.0949135 0.428799 0.412513 
1505 1 0.179034 0.467716 0.360792 
237 1 0.143052 0.49063 0.406471 
1112 1 0.484992 0.37339 0.412612 
248 2 0.14114 0.468281 0.404979 
1240 1 0.0659573 0.472565 0.367204 
1241 1 0.0799922 0.446998 0.375092 
1243 1 0.0547514 0.4934 0.383612 
1247 1 0.0815621 0.444119 0.406195 
1248 1 0.0724591 0.460178 0.424384 
1249 1 0.057337 0.487525 0.415299 
1257 2 0.0541222 0.499119 0.305506 
716 1 0.208866 0.338189 0.348137 
717 1 0.217069 0.359369 0.32566 
718 1 0.23136 0.384593 0.335303 
722 1 0.238222 0.412008 0.318679 
729 2 0.215814 0.352467 0.304672 
1502 1 0.148176 0.487045 0.329238 
710 1 0.24252 0.433448 0.34056 
721 1 0.25269 0.417209 0.292091 
705 1 0.247863 0.463932 0.341854 
719 1 0.248597 0.467245 0.310365 
720 1 0.2566 0.447034 0.290131 
1501 1 0.172947 0.491492 0.3469 
1323 2 0.301744 0.497646 0.35085 
711 1 0.23458 0.391992 0.365139 
715 1 0.219694 0.344559 0.374911 
709 1 0.240569 0.419307 0.36934 
712 1 0.23789 0.367684 0.381914 
615 2 0.333553 0.386992 0.395778 
708 1 0.253326 0.426779 0.390759 
713 1 0.258769 0.374268 0.402329 
714 1 0.262989 0.40224 0.409423 
725 2 0.267955 0.359561 0.414441 
600 1 0.346159 0.396094 0.41271 
241 2 0.188714 0.448272 0.407297 
1510 2 0.19222 0.466563 0.376979 
706 1 0.264981 0.472838 0.367227 
723 2 0.273909 0.495674 0.365903 
707 1 0.270765 0.453715 0.389115 
724 2 0.280132 0.461603 0.408333 
610 2 0.348183 0.432006 0.363801 
593 1 0.399181 0.45399 0.426874 
1324 3 0.300396 0.498508 0.327245 
1123 2 0.477127 0.374406 0.392557 
590 1 0.355891 0.440102 0.384407 
591 1 0.364447 0.468558 0.389112 
592 1 0.385824 0.475277 0.410098 
490 2 0.287077 0.17743 0.423788 
595 1 0.363959 0.422138 0.406947 
611 2 0.352964 0.482279 0.376709 
612 2 0.394383 0.494819 0.414608 
475 1 0.303406 0.168748 0.417083 
226 1 0.199604 0.459117 0.425524 
1254 2 0.0674654 0.452 0.301556 
1122 1 0.414466 0.366028 0.423735 
474 1 0.313903 0.141802 0.426636 
494 2 0.398376 0.0460107 0.413506 
482 1 0.388522 0.0611767 0.424746 
1121 1 0.436842 0.368525 0.428259 
1124 2 0.393001 0.361937 0.418499 
485 1 0.339205 0.0912999 0.454019 
496 2 0.323599 0.104821 0.470272 
1224 1 0.179554 0.0115325 0.562319 
489 2 0.301849 0.127449 0.437439 
495 2 0.340814 0.0469418 0.474269 
479 1 0.353242 0.104145 0.430968 
484 1 0.350988 0.0632707 0.462905 
178 2 0.354228 0.015248 0.490027 
483 1 0.372462 0.0558099 0.446519 
1233 1 0.234129 0.00365887 0.564533 
164 1 0.437247 0.0148526 0.460357 
165 1 0.410712 0.0192168 0.468883 
179 2 0.454917 0.0303637 0.458809 
180 2 0.405549 0.0410575 0.477438 
186 2 0.488107 0.0198093 0.467295 
789 1 0.471128 0.0800135 0.461942 
790 1 0.494632 0.061519 0.459116 
803 1 0.44005 0.0755867 0.4578 
807 2 0.495347 0.0433684 0.445393 
814 2 0.4375 0.0596069 0.440979 
815 2 0.398751 0.076004 0.478802 
804 1 0.417366 0.0852028 0.47601 
794 1 0.475556 0.101399 0.482425 
45 1 0.463796 0.00783807 0.557131 
46 1 0.451651 0.000850931 0.531332 
48 1 0.43043 0.0236865 0.523095 
49 1 0.433862 0.0510445 0.534555 
60 2 0.414742 0.0156717 0.509094 
793 1 0.50055 0.103456 0.497914 
805 1 0.42352 0.110725 0.490756 
806 1 0.453985 0.119269 0.494904 
795 1 0.491606 0.119824 0.519796 
816 2 0.40961 0.117826 0.504344 
801 1 0.460523 0.156209 0.536796 
802 1 0.466594 0.133595 0.517492 
813 2 0.439287 0.16812 0.535107 
1232 2 0.225314 0.0618131 0.539898 
223 1 0.218112 0.492435 0.504979 
1375 2 0.330263 0.381411 0.571011 
1259 2 0.0774079 0.456049 0.444626 
242 2 0.228961 0.426566 0.432559 
616 2 0.325727 0.372801 0.447912 
620 2 0.456537 0.40393 0.508587 
601 1 0.339947 0.389261 0.440946 
1327 2 0.282783 0.397292 0.469287 
1328 3 0.269132 0.409485 0.47689 
225 1 0.190401 0.489259 0.431566 
227 1 0.220591 0.446752 0.438416 
1223 1 0.206523 0.0256317 0.560188 
221 1 0.217913 0.457143 0.468199 
222 1 0.220935 0.486925 0.47464 
240 2 0.206328 0.415679 0.481474 
1104 1 0.496025 0.400099 0.460142 
220 1 0.211605 0.437131 0.487053 
239 2 0.215153 0.423853 0.529771 
218 1 0.224656 0.470981 0.525546 
219 1 0.217088 0.442574 0.516738 
238 2 0.225983 0.479181 0.546676 
617 2 0.339196 0.380222 0.496298 
596 1 0.387232 0.415387 0.458363 
597 1 0.409233 0.422997 0.474912 
602 1 0.3593 0.398377 0.46341 
605 1 0.357501 0.388842 0.491973 
1110 1 0.469754 0.385404 0.462167 
1111 1 0.468482 0.374899 0.437545 
1120 2 0.457227 0.381807 0.480266 
1222 1 0.210178 0.0555028 0.555222 
51 1 0.472187 0.0382211 0.569433 
608 1 0.436771 0.37595 0.536831 
1116 2 0.491267 0.416857 0.507166 
619 2 0.452614 0.365925 0.547116 
50 1 0.452825 0.0595811 0.560689 
603 1 0.410261 0.406068 0.502928 
604 1 0.37998 0.396395 0.509754 
800 1 0.475591 0.154348 0.561759 
598 1 0.430112 0.44403 0.470612 
599 1 0.426381 0.455227 0.444193 
614 2 0.44101 0.473485 0.440421 
618 2 0.358393 0.371255 0.543559 
613 2 0.45064 0.445342 0.484426 
609 1 0.436873 0.397781 0.517583 
606 1 0.37812 0.379586 0.535592 
607 1 0.405708 0.369415 0.544027 
61 2 0.457997 0.0810784 0.568091 
594 1 0.384554 0.431669 0.433225 
510 1 0.033985 0.0117304 0.624882 
511 1 0.0399083 0.0366697 0.648718 
512 1 0.0639576 0.0329786 0.666094 
524 2 0.0646286 0.0465513 0.684366 
1212 1 0.145748 0.0827078 0.595007 
1213 1 0.117034 0.0720657 0.59922 
1215 1 0.162927 0.0617798 0.583611 
1219 1 0.113393 0.0402856 0.593884 
1220 1 0.132419 0.0221112 0.581593 
1221 1 0.161932 0.0331577 0.573121 
1227 2 0.0838857 0.0845105 0.626949 
1230 2 0.0925202 0.0352254 0.598639 
508 1 0.108276 0.00882823 0.679092 
1214 1 0.102413 0.0908093 0.617158 
525 2 0.0247587 0.0790465 0.665993 
516 1 0.0124981 0.0174334 0.604225 
513 1 0.0199022 0.0592648 0.652185 
1211 1 0.156383 0.11446 0.60153 
1400 2 0.274866 0.394242 0.675081 
1216 1 0.192927 0.0719728 0.575789 
1038 2 0.18137 0.0847561 0.677342 
1209 1 0.115703 0.114489 0.6315 
1210 1 0.1407 0.1276 0.624229 
1225 2 0.104661 0.120138 0.654166 
1226 2 0.146273 0.146443 0.636791 
509 1 0.0847354 0.0131239 0.660406 
523 2 0.105823 0.0179323 0.698159 
1031 2 0.1252 0.0743732 0.694776 
1013 1 0.157906 0.111171 0.705295 
1027 1 0.179049 0.104292 0.687633 
62 2 0.485986 0.0403724 0.586233 
1397 1 0.274362 0.387899 0.633933 
527 2 0.00636031 0.00515284 0.5843 
812 2 0.466838 0.163867 0.579752 
1014 1 0.131824 0.0905791 0.710442 
1373 1 0.33757 0.363486 0.578652 
1376 2 0.354865 0.324406 0.591309 
1398 1 0.274369 0.390233 0.656656 
1217 1 0.202527 0.101406 0.57916 
1218 1 0.183617 0.121214 0.589408 
1374 1 0.34588 0.343612 0.585966 
1039 2 0.223833 0.110459 0.674768 
1229 2 0.19062 0.142425 0.593183 
1028 1 0.207515 0.119018 0.686463 
1029 1 0.207794 0.147569 0.696162 
1228 2 0.223085 0.108428 0.570831 
1040 2 0.225887 0.159886 0.695762 
1399 2 0.27577 0.380994 0.615474 
1030 1 0.182516 0.160096 0.712171 
743 1 0.171619 0.00224594 0.815307 
1015 1 0.126307 0.0855477 0.739709 
1032 2 0.111915 0.0686468 0.746566 
100 1 0.21715 0.00300954 0.765683 
1340 3 0.108298 0.0162935 0.74175 
1034 2 0.145817 0.0899251 0.794626 
1016 1 0.144893 0.107388 0.754903 
1022 1 0.15297 0.106989 0.783693 
756 2 0.145375 0.0369942 0.81932 
1017 1 0.151369 0.137965 0.746408 
1018 1 0.157723 0.14053 0.715338 
744 1 0.145974 0.0159734 0.818688 
118 2 0.153254 0.00863615 0.714045 
757 2 0.0999704 0.00625786 0.822123 
101 1 0.200737 0.0294423 0.763782 
102 1 0.178923 0.0327313 0.742555 
103 1 0.164843 0.0076506 0.730406 
107 1 0.215666 0.0554428 0.769563 
108 1 0.247348 0.0507066 0.781215 
109 1 0.252362 0.0252988 0.799139 
112 1 0.226724 0.104239 0.749529 
113 1 0.206829 0.0802835 0.756163 
117 2 0.16776 0.0525366 0.742834 
123 2 0.220695 0.124059 0.742158 
124 2 0.186763 0.0817069 0.744468 
110 1 0.267815 0.0730599 0.776881 
111 1 0.254026 0.0969325 0.759923 
121 2 0.271477 0.0238667 0.811274 
122 2 0.29177 0.0694976 0.781692 
1019 1 0.172515 0.157003 0.760038 
1020 1 0.190096 0.142354 0.780676 
1021 1 0.178384 0.119418 0.794369 
1026 1 0.192985 0.170884 0.740244 
1033 2 0.189313 0.109987 0.812562 
1037 2 0.231179 0.195656 0.734458 
1023 1 0.220045 0.152296 0.787932 
1024 1 0.23357 0.175083 0.774924 
1025 1 0.219259 0.184024 0.748555 
1035 2 0.22982 0.142034 0.806057 
1036 2 0.254559 0.181962 0.778983 
1339 2 0.124481 0.0270537 0.745841 
755 2 0.18788 0.0150636 0.822077 
106 1 0.240223 0.000335241 0.7878 
415 1 0.409227 0.991763 0.0615306 
995 1 0.322838 0.545371 0.123102 
1007 2 0.310449 0.557263 0.138632 
430 2 0.389332 0.996254 0.0619579 
1008 2 0.315183 0.574399 0.0929684 
1197 2 0.339447 0.674285 0.0506439 
999 1 0.455623 0.502409 0.0940755 
990 1 0.406774 0.503023 0.101341 
991 1 0.359716 0.515902 0.109208 
992 1 0.337314 0.522205 0.130456 
998 1 0.371101 0.536727 0.0888408 
1000 1 0.449745 0.525403 0.0757848 
1001 1 0.423524 0.538001 0.069263 
1002 1 0.404848 0.53041 0.0889838 
1011 2 0.466872 0.530982 0.0595454 
1012 2 0.424216 0.558981 0.0533221 
997 1 0.347611 0.551795 0.0802775 
1360 3 0.468006 0.582698 0.116356 
1091 2 0.483908 0.717951 0.00518047 
676 2 0.396445 0.605139 0.13555 
996 1 0.325112 0.555172 0.0974767 
1009 2 0.348287 0.567883 0.0633378 
1181 1 0.359876 0.672619 0.0616666 
1182 1 0.377995 0.653074 0.0478302 
1183 1 0.403907 0.64627 0.060682 
1184 1 0.412912 0.663948 0.0848172 
1187 1 0.442713 0.664157 0.0883003 
1188 1 0.463696 0.643836 0.0744515 
1189 1 0.450235 0.623057 0.0556968 
1190 1 0.420245 0.62254 0.0511865 
1198 2 0.372507 0.636256 0.0283311 
1200 2 0.464268 0.604016 0.0488221 
1201 2 0.411403 0.606513 0.0338663 
1343 2 0.337104 0.619268 0.1317 
1344 3 0.342988 0.636521 0.124672 
414 1 0.424897 0.991532 0.0392347 
675 2 0.365435 0.561743 0.136103 
1359 2 0.472732 0.562826 0.110141 
1194 1 0.489584 0.642092 0.0878079 
1195 1 0.498968 0.665113 0.104287 
1383 2 0.387774 0.658261 0.142286 
1355 2 0.290372 0.652539 0.0163609 
929 1 0.330925 0.697896 0.0153628 
930 1 0.304237 0.70818 0.026743 
931 1 0.299722 0.7335 0.0440244 
932 1 0.325655 0.743793 0.0543357 
938 1 0.331396 0.769572 0.0720378 
947 2 0.285892 0.695767 0.0212866 
948 2 0.278678 0.739957 0.0523109 
950 2 0.31486 0.777421 0.0819753 
1185 1 0.392318 0.681755 0.10074 
1186 1 0.365542 0.687237 0.0878432 
1193 1 0.451353 0.683783 0.107108 
1199 2 0.351753 0.702521 0.0966753 
1196 1 0.479669 0.685808 0.114984 
1191 1 0.402062 0.700636 0.124284 
1192 1 0.431869 0.704929 0.123751 
1207 2 0.488092 0.699008 0.130157 
933 1 0.352817 0.734465 0.0463709 
934 1 0.353929 0.715786 0.0240255 
937 1 0.358383 0.778343 0.0810975 
949 2 0.36256 0.79838 0.0900758 
935 1 0.378128 0.739919 0.0536787 
946 1 0.383495 0.705033 0.0190626 
936 1 0.381597 0.758866 0.078975 
145 2 0.400774 0.814245 0.010194 
939 1 0.412773 0.763469 0.0836599 
940 1 0.433439 0.748547 0.0693551 
941 1 0.427455 0.721642 0.0521473 
942 1 0.398472 0.718516 0.0446453 
951 2 0.417912 0.775007 0.097343 
952 2 0.453689 0.754162 0.0749739 
953 2 0.441018 0.71489 0.0353439 
1202 2 0.386777 0.715649 0.137894 
1203 2 0.440991 0.722524 0.133053 
152 2 0.472257 0.934316 0.0110233 
136 1 0.451996 0.88139 0.0192602 
150 2 0.429242 0.850421 0.0391266 
135 1 0.431398 0.860126 0.0204812 
151 2 0.461717 0.886462 0.0383613 
410 1 0.444938 0.958025 0.0864846 
416 1 0.421857 0.979624 0.0905057 
417 1 0.435922 0.940506 0.132751 
419 1 0.409792 0.982989 0.118112 
418 1 0.413518 0.961508 0.137813 
408 1 0.466417 0.959403 0.0639486 
409 1 0.456624 0.980044 0.0443105 
411 1 0.457755 0.946258 0.112573 
404 1 0.478314 0.990087 0.0250508 
407 1 0.498202 0.953232 0.067391 
412 1 0.482767 0.926516 0.110655 
427 2 0.486066 0.909491 0.125527 
433 2 0.440115 0.912991 0.200493 
1005 2 0.3166 0.505441 0.165921 
664 1 0.380462 0.564818 0.149779 
703 2 0.41738 0.995573 0.218226 
661 1 0.44749 0.639734 0.17476 
649 1 0.408958 0.543214 0.188756 
650 1 0.420728 0.520979 0.207798 
651 1 0.448915 0.522623 0.21583 
652 1 0.468434 0.546706 0.211837 
667 2 0.409506 0.504799 0.215002 
668 2 0.454643 0.505437 0.225122 
674 2 0.372092 0.524384 0.169485 
663 1 0.38495 0.54516 0.171149 
673 2 0.437057 0.651111 0.158699 
658 1 0.494295 0.557509 0.22513 
653 1 0.456935 0.565162 0.193044 
1384 2 0.383976 0.695325 0.200866 
654 1 0.428039 0.56635 0.184017 
655 1 0.460871 0.594096 0.192419 
662 1 0.441265 0.610863 0.178626 
666 1 0.422331 0.589535 0.166821 
1381 1 0.385812 0.669498 0.162999 
1382 1 0.384849 0.682086 0.183172 
656 1 0.482801 0.606114 0.210536 
659 1 0.487225 0.636161 0.206546 
660 1 0.470279 0.653772 0.187438 
672 2 0.475764 0.676868 0.185626 
423 1 0.445332 0.920148 0.158054 
434 2 0.462842 0.906876 0.157067 
420 1 0.395415 0.961412 0.162674 
421 1 0.406721 0.943024 0.183162 
422 1 0.433233 0.922334 0.183319 
432 2 0.37624 0.969103 0.164253 
993 1 0.336355 0.506147 0.155922 
665 1 0.398887 0.588781 0.148997 
1245 1 0.045219 0.522015 0.343067 
1246 1 0.0555137 0.499625 0.326733 
1256 2 0.0365705 0.540818 0.335031 
540 1 0.485076 0.934808 0.364482 
231 1 0.165335 0.505476 0.417761 
234 1 0.144142 0.552596 0.40728 
235 1 0.115849 0.539998 0.399403 
236 1 0.11771 0.508417 0.396857 
246 2 0.141515 0.574896 0.405631 
1244 1 0.0449953 0.519627 0.373002 
1250 1 0.0409923 0.542875 0.394178 
1251 1 0.0512194 0.539739 0.420772 
232 1 0.167403 0.535935 0.421592 
1507 2 0.137023 0.501514 0.315331 
1260 2 0.039724 0.564202 0.386382 
550 2 0.366692 0.973717 0.371226 
546 1 0.474488 0.830509 0.348223 
557 2 0.468342 0.811053 0.343128 
898 2 0.466578 0.752838 0.363586 
181 2 0.36605 0.906624 0.429099 
873 1 0.472974 0.788067 0.394401 
874 1 0.450899 0.812284 0.395582 
877 1 0.495692 0.823207 0.424782 
888 1 0.499681 0.74135 0.389549 
887 1 0.478735 0.760234 0.378472 
1443 2 0.239624 0.935384 0.408126 
891 2 0.435333 0.80372 0.383227 
1441 1 0.242554 0.913418 0.414392 
1442 1 0.246141 0.890662 0.418544 
1444 2 0.24687 0.868154 0.418529 
547 1 0.456314 0.853449 0.345632 
558 2 0.435716 0.852088 0.351968 
541 1 0.469904 0.882859 0.34683 
528 1 0.429045 0.995732 0.403156 
553 2 0.485268 0.994228 0.403658 
875 1 0.447355 0.834333 0.412525 
899 2 0.495174 0.720104 0.386241 
892 2 0.433173 0.848176 0.408991 
537 1 0.398332 0.924432 0.348942 
533 1 0.447135 0.979072 0.384227 
532 1 0.434983 0.954454 0.370092 
538 1 0.47692 0.978929 0.391644 
531 1 0.403977 0.952346 0.367413 
551 2 0.406582 0.883156 0.340278 
530 1 0.38639 0.972391 0.380071 
529 1 0.400164 0.995967 0.39431 
534 1 0.454493 0.931415 0.361455 
535 1 0.447786 0.903776 0.350753 
536 1 0.415488 0.901113 0.344162 
552 2 0.378305 0.915627 0.344445 
182 2 0.418559 0.888086 0.428826 
539 1 0.493272 0.955679 0.384435 
1321 2 0.00669831 0.548666 0.317943 
1364 2 0.00689586 0.501758 0.327801 
1506 2 0.182567 0.511656 0.349125 
878 1 0.497956 0.79891 0.405348 
247 2 0.0982935 0.498942 0.389504 
876 1 0.471257 0.837618 0.434186 
233 1 0.182543 0.549863 0.442795 
245 2 0.176886 0.572355 0.446374 
1263 2 0.0627377 0.506119 0.454677 
1262 1 0.0817687 0.580251 0.445898 
1264 2 0.0869338 0.596672 0.460269 
230 1 0.193152 0.532854 0.466236 
224 1 0.201225 0.501517 0.455618 
1167 1 0.314558 0.57402 0.471744 
1168 1 0.285973 0.567196 0.466079 
1179 2 0.280941 0.55722 0.446861 
1175 2 0.226255 0.563169 0.460573 
1159 1 0.273657 0.603181 0.503047 
1163 1 0.217745 0.597082 0.487924 
1164 1 0.234739 0.579285 0.474562 
1165 1 0.266108 0.582977 0.480687 
1174 2 0.199593 0.591765 0.479228 
187 1 0.267423 0.559841 0.550763 
188 1 0.239375 0.570247 0.551566 
189 1 0.231929 0.593524 0.569679 
192 1 0.291571 0.575088 0.564789 
207 2 0.273352 0.542797 0.542256 
208 2 0.222321 0.556746 0.54762 
1252 1 0.0548648 0.509794 0.431775 
228 1 0.211437 0.521755 0.513666 
243 2 0.214281 0.527952 0.535981 
244 2 0.19047 0.559792 0.499331 
881 1 0.49384 0.84317 0.482316 
1155 1 0.267994 0.63623 0.53899 
1162 1 0.298756 0.641591 0.54419 
1156 1 0.256402 0.617338 0.517757 
1158 1 0.210288 0.637491 0.527426 
1160 1 0.303619 0.599333 0.512434 
1157 1 0.227964 0.61999 0.508501 
1171 2 0.186495 0.640091 0.527596 
1173 2 0.305734 0.65849 0.557688 
229 1 0.197722 0.53873 0.493246 
1177 1 0.331136 0.556059 0.452578 
1178 1 0.345186 0.539351 0.44193 
1176 2 0.345977 0.593067 0.501185 
1166 1 0.325297 0.586243 0.498871 
197 1 0.319827 0.574005 0.558871 
212 2 0.324699 0.565622 0.540092 
1161 1 0.3157 0.624875 0.529321 
1172 2 0.338544 0.629055 0.528252 
1153 1 0.221138 0.657204 0.547787 
1154 1 0.25167 0.657914 0.552861 
1169 2 0.206778 0.669825 0.55743 
1170 2 0.260497 0.67293 0.565956 
1261 1 0.070387 0.56372 0.435273 
296 1 0.21302 0.825105 0.529356 
297 1 0.198082 0.813396 0.55446 
308 2 0.205498 0.818909 0.507174 
1405 1 0.301841 0.824064 0.506445 
1406 1 0.30363 0.80749 0.522283 
1407 2 0.302561 0.842079 0.490949 
1413 1 0.256063 0.777525 0.549598 
1414 1 0.253711 0.755332 0.55814 
1415 2 0.255433 0.798852 0.543857 
1416 2 0.247351 0.736941 0.56092 
521 2 0.0802772 0.954555 0.566132 
44 1 0.47179 0.952157 0.52984 
893 2 0.491954 0.85365 0.500519 
43 1 0.479233 0.925181 0.515747 
42 1 0.493069 0.903078 0.528698 
175 1 0.495271 0.998464 0.465891 
38 1 0.487739 0.959482 0.553706 
307 2 0.249109 0.853151 0.490013 
177 2 0.326041 0.973074 0.485241 
305 2 0.280928 0.949164 0.479195 
306 2 0.263419 0.90327 0.471754 
47 1 0.451069 0.971034 0.518553 
290 1 0.279149 0.937046 0.496462 
291 1 0.268304 0.908991 0.492502 
1234 1 0.253393 0.990259 0.566455 
1408 2 0.301624 0.78819 0.536456 
293 1 0.240569 0.852601 0.563812 
294 1 0.232909 0.845321 0.533708 
295 1 0.24746 0.861591 0.510536 
59 2 0.438838 0.965889 0.500776 
280 1 0.301191 0.968825 0.533605 
281 1 0.314235 0.972208 0.562092 
284 1 0.283381 0.922902 0.550552 
285 1 0.28691 0.943902 0.527201 
286 1 0.271906 0.894464 0.543883 
292 1 0.260514 0.888074 0.516614 
300 2 0.309666 0.981096 0.514882 
301 2 0.323086 0.993509 0.566174 
213 2 0.362374 0.57971 0.569218 
57 2 0.499915 0.883671 0.514057 
882 1 0.471674 0.845158 0.464143 
157 1 0.345627 0.97256 0.474939 
176 2 0.336223 0.935109 0.452697 
58 2 0.466249 0.917272 0.498459 
183 2 0.470883 0.901749 0.43369 
894 2 0.45246 0.854954 0.471775 
156 1 0.350873 0.950759 0.455148 
158 1 0.359793 0.998476 0.47392 
159 1 0.389832 0.996902 0.467702 
160 1 0.399351 0.967969 0.455445 
161 1 0.378797 0.945041 0.448 
162 1 0.426763 0.960346 0.452699 
163 1 0.445757 0.985225 0.4524 
166 1 0.385315 0.921385 0.431414 
167 1 0.411894 0.911302 0.431907 
168 1 0.433317 0.933145 0.441227 
169 1 0.473719 0.97765 0.454687 
170 1 0.477424 0.946719 0.454211 
171 1 0.459676 0.922985 0.445789 
287 1 0.262383 0.874801 0.56754 
36 1 0.499516 0.93376 0.568408 
1235 2 0.171615 0.9892 0.555464 
1236 2 0.269794 0.97714 0.571384 
39 1 0.479491 0.983956 0.568676 
1180 2 0.35589 0.520998 0.432228 
1372 2 0.270279 0.57836 0.62238 
1370 1 0.290345 0.564216 0.621793 
1369 1 0.307018 0.550981 0.614354 
191 1 0.286372 0.599729 0.580941 
190 1 0.256034 0.606012 0.584591 
193 1 0.309692 0.614073 0.593645 
194 1 0.302488 0.636896 0.611712 
195 1 0.272448 0.641347 0.620711 
196 1 0.251169 0.626129 0.607289 
210 2 0.265159 0.656129 0.635348 
211 2 0.231731 0.6309 0.609664 
200 1 0.327364 0.652647 0.623699 
1403 2 0.464266 0.905652 0.645954 
1401 1 0.480083 0.89464 0.635555 
1371 2 0.314525 0.529765 0.608289 
199 1 0.337057 0.604339 0.597881 
201 1 0.355822 0.642723 0.62618 
202 1 0.358957 0.616445 0.61121 
203 1 0.381131 0.66007 0.634942 
214 2 0.374351 0.605279 0.616617 
215 2 0.401311 0.652802 0.636319 
1454 1 0.0995307 0.722032 0.664892 
1456 2 0.0895921 0.703838 0.667693 
1269 1 0.155234 0.804548 0.627437 
1270 1 0.149878 0.818441 0.60402 
1283 2 0.151088 0.80808 0.585941 
1268 1 0.155563 0.823546 0.653433 
1453 1 0.110441 0.741831 0.657788 
1455 2 0.120121 0.763012 0.653167 
1271 1 0.161311 0.811175 0.679929 
1272 1 0.159467 0.827808 0.706073 
25 2 0.247703 0.702754 0.610187 
206 1 0.319828 0.679822 0.635754 
23 2 0.291142 0.682985 0.579482 
3 1 0.301015 0.701375 0.590073 
217 2 0.296703 0.685665 0.640534 
10 1 0.260441 0.720598 0.615876 
205 1 0.340116 0.699444 0.63758 
1275 1 0.159922 0.773173 0.62879 
1286 2 0.153808 0.758977 0.613462 
4 1 0.289197 0.724907 0.603998 
7 1 0.29041 0.770274 0.620239 
8 1 0.269087 0.763661 0.641093 
9 1 0.249118 0.73995 0.634491 
14 1 0.252291 0.786287 0.654443 
15 1 0.261725 0.815193 0.641747 
16 1 0.284635 0.823301 0.624463 
20 1 0.232263 0.783195 0.676884 
24 2 0.229401 0.738424 0.644712 
31 2 0.234297 0.76022 0.683578 
298 1 0.209306 0.819608 0.582437 
309 2 0.196502 0.81433 0.598083 
5 1 0.304547 0.749772 0.606655 
13 1 0.300921 0.799229 0.618381 
1276 1 0.166975 0.764486 0.655593 
1287 2 0.166095 0.742282 0.659398 
216 2 0.335805 0.721691 0.63864 
1277 1 0.167682 0.78308 0.680731 
1280 1 0.172334 0.768695 0.70878 
19 1 0.219392 0.80649 0.694378 
30 2 0.206174 0.805207 0.715401 
1291 2 0.17941 0.749816 0.710818 
204 1 0.370974 0.688445 0.639467 
6 1 0.331085 0.757168 0.594849 
11 1 0.345488 0.782899 0.60337 
12 1 0.330223 0.806117 0.612857 
27 2 0.338894 0.825854 0.620512 
1265 1 0.15168 0.849064 0.604638 
1266 1 0.149624 0.866686 0.627631 
1281 2 0.155112 0.859098 0.582492 
1379 2 0.0956877 0.914783 0.597518 
1267 1 0.147861 0.852893 0.654075 
1282 2 0.150902 0.891073 0.625523 
1377 1 0.079151 0.911048 0.610763 
497 1 0.143619 0.949846 0.649165 
498 1 0.144901 0.939951 0.618505 
499 1 0.126134 0.94589 0.596574 
500 1 0.100799 0.964801 0.604073 
501 1 0.0997345 0.973648 0.634317 
502 1 0.126727 0.974993 0.650583 
503 1 0.0808517 0.995539 0.636045 
504 1 0.0555977 0.992737 0.619113 
505 1 0.0535643 0.973969 0.594694 
506 1 0.0796627 0.965545 0.586055 
507 1 0.13252 0.991979 0.676027 
520 2 0.0368225 0.974654 0.580931 
517 2 0.160072 0.946049 0.664025 
518 2 0.158986 0.922927 0.615272 
1378 1 0.0603499 0.905931 0.623887 
1380 2 0.0518063 0.896347 0.641014 
1273 1 0.156879 0.859772 0.705683 
1274 1 0.145864 0.870719 0.680089 
522 2 0.15177 0.992367 0.689656 
1285 2 0.136843 0.891225 0.675809 
1404 2 0.474419 0.850078 0.629082 
1231 2 0.127088 1.00041 0.576283 
17 1 0.241274 0.838454 0.652747 
299 1 0.227205 0.842718 0.586927 
310 2 0.232843 0.850886 0.604888 
28 2 0.282048 0.843303 0.61534 
29 2 0.232708 0.853123 0.637792 
282 1 0.309141 0.953829 0.582365 
283 1 0.295824 0.926874 0.578073 
55 2 0.478868 0.995183 0.6137 
288 1 0.274091 0.883316 0.592803 
289 1 0.29175 0.907684 0.599065 
302 2 0.315365 0.959199 0.6015 
303 2 0.270474 0.869898 0.609966 
304 2 0.299647 0.910665 0.619796 
18 1 0.225831 0.828839 0.676883 
1333 2 0.335488 0.922294 0.669666 
1334 3 0.343637 0.913949 0.652911 
40 1 0.488021 0.98112 0.599497 
1402 1 0.477734 0.87218 0.631969 
1 1 0.347372 0.733116 0.587125 
26 2 0.365394 0.787126 0.594456 
22 2 0.340271 0.690514 0.575168 
21 2 0.370373 0.73468 0.58216 
2 1 0.330011 0.7075 0.582315 
519 2 0.131061 0.937216 0.575848 
198 1 0.339261 0.584919 0.57316 
209 2 0.211379 0.600077 0.576431 
840 2 0.135274 0.601007 0.832968 
824 1 0.124074 0.668548 0.805605 
827 1 0.136669 0.640994 0.811249 
828 1 0.123333 0.619013 0.823737 
839 2 0.157234 0.638892 0.805091 
829 1 0.0968392 0.621761 0.834557 
830 1 0.0829326 0.648809 0.831187 
834 1 0.0576758 0.66263 0.845705 
841 2 0.0888917 0.606242 0.848597 
267 1 0.28786 0.661371 0.828056 
268 1 0.26815 0.651736 0.84693 
278 2 0.310031 0.65363 0.829216 
984 2 0.0282126 0.758749 0.852168 
1351 2 0.372645 0.874 0.809498 
872 2 0.423664 0.850568 0.790114 
820 1 0.0995581 0.720281 0.817988 
821 1 0.0820589 0.695482 0.81572 
823 1 0.0966524 0.672121 0.819087 
825 1 0.140744 0.693259 0.799786 
826 1 0.128557 0.720774 0.805787 
837 2 0.154486 0.693417 0.782459 
838 2 0.141811 0.739189 0.815973 
819 1 0.0920252 0.74545 0.833589 
836 2 0.0980728 0.765078 0.829315 
822 1 0.0639806 0.691239 0.840238 
745 1 0.121081 0.997757 0.819724 
983 2 0.0288557 0.808814 0.826328 
972 1 0.0132564 0.803867 0.841851 
818 1 0.0752124 0.740036 0.857314 
1352 3 0.374519 0.89228 0.817216 
263 1 0.239407 0.693877 0.832521 
265 1 0.258569 0.708511 0.811768 
266 1 0.283025 0.689768 0.814018 
1278 1 0.163941 0.81232 0.732276 
1288 2 0.164771 0.825749 0.753532 
276 2 0.215277 0.731453 0.831433 
277 2 0.254837 0.72608 0.793001 
1279 1 0.172501 0.785966 0.733286 
1289 1 0.186288 0.780567 0.762673 
867 2 0.285579 0.786142 0.787935 
1290 1 0.195377 0.775315 0.783568 
1292 2 0.202466 0.768818 0.803026 